                         Program Version 4.0.0.2 - RELEASE -
|  1> # Well-3-5
|  2>
|  3> ! M06
|  4> ! 6-311++G**
|  5> ! TightOpt NumFreq
|  6>
|  7>
|  8> !NOSOSCF
|  9>
| 10> ! Grid6 FinalGrid7
| 11>
| 12> %pal nprocs 16
| 13> end
| 14>
| 15>
| 16>
| 17> %geom
| 18> 	MaxIter 200
| 19> 	Calc_Hess true # Calculate Hessian in the beginning
| 20> 	NumHess true # Request numerical Hessian (analytical not available)
| 21> 	Recalc_Hess 5  # Recalculate the Hessian every 5 steps
| 22> end
| 23>
| 24> %scf
| 25> MaxIter 1500     # Here setting MaxIter to a very high number. Intended for systems that require sometimes 1000 iterations before converging (very rare).
| 26> DIISMaxEq 15  # Default value is 5. A value of 15-40 necessary for difficult systems.
| 27> directresetfreq 1 # Default value is 15. A value of 1 (very expensive) is sometimes required. A value between 1 and 15 may be more cost-effective.
| 28> end
| 29>
| 30>
| 31> %coords
| 32> 	CTyp = xyz
| 33> 	Charge = 1
| 34> 	Mult = 5
| 35> 	coords
| 36> Mn  0.09100746600911      0.01284464269490      0.00102562794126
| 37> O   2.10903949944868     -0.09639305231309     -0.25754232214053
| 38> H   2.66295031569892     -0.87533588382207     -0.09267708094319
| 39> H   2.68125060704329      0.61991772194026     -0.57405117885754
| 40>
| 41> 	end
| 42> end
| 43>
| 44>                          ****END OF INPUT****
 Total Charge           Charge          ....    1
 Multiplicity           Mult            ....    5
 Number of Electrons    NEL             ....   34
FINAL SINGLE POINT ENERGY     -1227.032598351934
FINAL SINGLE POINT ENERGY     -1227.032696685487
FINAL SINGLE POINT ENERGY     -1227.032695874484
                    ***********************HURRAY********************

CARTESIAN COORDINATES (ANGSTROEM)
---------------------------------
  Mn     0.078994    0.013240    0.003133
  O      2.109540   -0.096671   -0.259674
  H      2.668280   -0.865806   -0.095672
  H      2.687434    0.610270   -0.571032

 Multiplicity           Mult            ....    5
 Number of Electrons    NEL             ....   34
 Basis Dimension        Dim             ....   94

ORBITAL ENERGIES
----------------
                 SPIN UP ORBITALS
  NO   OCC          E(Eh)            E(eV)
   0   1.0000    -235.851913     -6417.8568
   1   1.0000     -27.632842      -751.9279
   2   1.0000     -23.660325      -643.8302
   3   1.0000     -23.638383      -643.2331
   4   1.0000     -23.635891      -643.1653
   5   1.0000     -19.463577      -529.6309
   6   1.0000      -3.438391       -93.5634
   7   1.0000      -2.315951       -63.0202
   8   1.0000      -2.267894       -61.7125
   9   1.0000      -2.265220       -61.6398
  10   1.0000      -1.288555       -35.0634
  11   1.0000      -0.794741       -21.6260
  12   1.0000      -0.699418       -19.0321
  13   1.0000      -0.593577       -16.1520
  14   1.0000      -0.481762       -13.1094
  15   1.0000      -0.477280       -12.9874
  16   1.0000      -0.467752       -12.7282
  17   1.0000      -0.436593       -11.8803
  18   1.0000      -0.433424       -11.7941
  19   0.0000      -0.264852        -7.2070
  20   0.0000      -0.193832        -5.2744
  21   0.0000      -0.175359        -4.7718
  22   0.0000      -0.175072        -4.7640
  23   0.0000      -0.134421        -3.6578

                 SPIN DOWN ORBITALS
  NO   OCC          E(Eh)            E(eV)
   0   1.0000    -235.852147     -6417.8632
   1   1.0000     -27.587672      -750.6987
   2   1.0000     -23.608610      -642.4229
   3   1.0000     -23.597848      -642.1301
   4   1.0000     -23.596613      -642.0965
   5   1.0000     -19.463432      -529.6269
   6   1.0000      -3.251327       -88.4731
   7   1.0000      -2.102556       -57.2135
   8   1.0000      -2.079831       -56.5951
   9   1.0000      -2.078599       -56.5615
  10   1.0000      -1.288102       -35.0510
  11   1.0000      -0.794713       -21.6253
  12   1.0000      -0.695524       -18.9262
  13   1.0000      -0.588175       -16.0051
  14   1.0000      -0.324528        -8.8308
  15   0.0000      -0.264130        -7.1873
  16   0.0000      -0.196407        -5.3445
  17   0.0000      -0.186852        -5.0845
  18   0.0000      -0.183366        -4.9897
  19   0.0000      -0.181939        -4.9508

MULLIKEN ATOMIC CHARGES AND SPIN POPULATIONS
--------------------------------------------
   0 Mn:    0.845570    3.997782
   1 O :   -0.582942    0.005677
   2 H :    0.368665   -0.001705
   3 H :    0.368707   -0.001755
Sum of atomic charges         :    1.0000000

LOEWDIN ATOMIC CHARGES AND SPIN POPULATIONS
-------------------------------------------
   0 Mn:    0.731019    3.969856
   1 O :   -0.041753    0.030047
   2 H :    0.155369    0.000065
   3 H :    0.155364    0.000032

  Mayer bond orders larger than 0.1
B(  0-Mn,  1-O ) :   0.2950 B(  1-O ,  2-H ) :   0.8718 B(  1-O ,  3-H ) :   0.8716

FINAL SINGLE POINT ENERGY     -1227.032695803299

DIPOLE MOMENT
-------------
                                X             Y             Z
Electronic contribution:     -5.88824       0.31834       0.76245
Nuclear contribution   :      6.31759      -0.34261      -0.81790
                        -----------------------------------------
Total Dipole Moment    :      0.42935      -0.02428      -0.05545
                        -----------------------------------------
Magnitude (a.u.)       :      0.43360
Magnitude (Debye)      :      1.10211

VIBRATIONAL FREQUENCIES
-----------------------

   0:         0.00 cm**-1
   1:         0.00 cm**-1
   2:         0.00 cm**-1
   3:         0.00 cm**-1
   4:         0.00 cm**-1
   5:         0.00 cm**-1
   6:       366.07 cm**-1
   7:       411.84 cm**-1
   8:       625.11 cm**-1
   9:      1655.34 cm**-1
  10:      3816.32 cm**-1
  11:      3898.86 cm**-1

IR SPECTRUM
-----------

 Mode    freq (cm**-1)   T**2         TX         TY         TZ
-------------------------------------------------------------------
   6:       366.07    7.721597  ( -2.745236   0.177906   0.391953)
   7:       411.84  308.681265  (  2.438021   5.390724  16.543198)
   8:       625.11   50.526798  ( -0.141144  -6.752815   2.215032)
   9:      1655.34   81.789167  ( -8.955807   0.507670   1.151067)
  10:      3816.32  119.765723  (-10.837712   0.581831   1.403990)
  11:      3898.86  328.716299  (  0.135475  17.255237  -5.563697)

--------------------------
THERMOCHEMISTRY AT 298.15K
--------------------------

Temperature         ... 298.15 K
Pressure            ... 1.00 atm
Total Mass          ... 72.95 AMU

Throughout the following assumptions are being made:
  (1) The electronic state is orbitally nondegenerate
      but the spin degeneracy is treated
  (2) There are no thermally accessible electronically excited states
  (3) Hindered rotations indicated by low frequency modes are not
      treated as such but are treated as vibrations and this may
      cause some error
  (4) All equations used are the standard statistical mechanics
      equations for an ideal gas
  (5) All vibrations are strictly harmonic

freq.     366.07  E(vib)   ...       0.22
freq.     411.84  E(vib)   ...       0.19
freq.     625.11  E(vib)   ...       0.09
freq.    1655.34  E(vib)   ...       0.00
freq.    3816.32  E(vib)   ...       0.00
freq.    3898.86  E(vib)   ...       0.00

------------
INNER ENERGY
------------

The inner energy is: U= E(el) + E(ZPE) + E(vib) + E(rot) + E(trans)
    E(el)   - is the total energy from the electronic structure calculation
              = E(kin-el) + E(nuc-el) + E(el-el) + E(nuc-nuc)
    E(ZPE)  - the the zero temperature vibrational energy from the frequency calculation
    E(vib)  - the the finite temperature correction to E(ZPE) due to population
              of excited vibrational states
    E(rot)  - is the rotational thermal energy
    E(trans)- is the translational thermal energy

Summary of contributions to the inner energy U:
Electronic energy                ...  -1227.03269582 Eh
Zero point energy                ...      0.02454393 Eh      15.40 kcal/mol
Thermal vibrational correction   ...      0.00079114 Eh       0.50 kcal/mol
Thermal rotational correction    ...      0.00141627 Eh       0.89 kcal/mol
Thermal translational correction ...      0.00141627 Eh       0.89 kcal/mol
-----------------------------------------------------------------------
Total thermal energy                  -1227.00452820 Eh

Summary of corrections to the electronic energy:
(perhaps to be used in another calculation)
Total thermal correction                  0.00362369 Eh       2.27 kcal/mol
Non-thermal (ZPE) correction              0.02454393 Eh      15.40 kcal/mol
-----------------------------------------------------------------------
Total correction                          0.02816762 Eh      17.68 kcal/mol

--------
ENTHALPY
--------

The enthalpy is H = U + kB*T
                kB is Boltzmann's constant
Total free energy                 ...  -1227.00452820 Eh
Thermal Enthalpy correction       ...      0.00094421 Eh       0.59 kcal/mol
-----------------------------------------------------------------------
Total Enthalpy                    ...  -1227.00358399 Eh

Vibrational entropy computed according to the QRRHO of S. Grimme
Chem.Eur.J. 2012 18 9955

check

-------
ENTROPY
-------

The entropy contributions are T*S = T*(S(el)+S(vib)+S(rot)+S(trans)
     S(el)   - electronic entropy
     S(vib)  - vibrational entropy
     S(rot)  - rotational entropy
     S(trans)- translational entropy
The entropies will be listed as mutliplied by the temperature to get
units of energy

Electronic entropy                ...      0.00151960 Eh      0.95 kcal/mol
Vibrational entropy               ...      0.00115732 Eh      0.73 kcal/mol
Rotational entropy                ...      0.00845829 Eh      5.31 kcal/mol
Translational entropy             ...      0.01842465 Eh     11.56 kcal/mol
-----------------------------------------------------------------------
Final entropy term                ...      0.02955986 Eh     18.55 kcal/mol

CAUTION: The rotational entropy is not quite correctly treated here
         because it includes a symmetry number that is not yet correctly
         implemented in ORCA!
For a nonlinear molecule the correct rotational entropy is:
    S(rot) = R*(ln(qrot/sn)+1.5)
    R    = 8.31441 J/mol/K = 1.987191683e-3 kcal/mol/K
    qrot = 5202.7694869
    sn is the rotational symmetry number. We have assumed 3 here
       if it is different for your molecule then you should correct
       the printed rotational entropy by manually evaluating the equation
       as given above

For convenience we print out the resulting values for sn=1 - 12:
 sn= 1  qrot/sn=    5202.7695 T*S(rot)=     5.96 kcal/mol T*S(tot)=    19.20 kcal/mol
 sn= 2  qrot/sn=    2601.3847 T*S(rot)=     5.55 kcal/mol T*S(tot)=    18.79 kcal/mol
 sn= 3  qrot/sn=    1734.2565 T*S(rot)=     5.31 kcal/mol T*S(tot)=    18.55 kcal/mol
 sn= 4  qrot/sn=    1300.6924 T*S(rot)=     5.14 kcal/mol T*S(tot)=    18.38 kcal/mol
 sn= 5  qrot/sn=    1040.5539 T*S(rot)=     5.00 kcal/mol T*S(tot)=    18.25 kcal/mol
 sn= 6  qrot/sn=     867.1282 T*S(rot)=     4.90 kcal/mol T*S(tot)=    18.14 kcal/mol
 sn= 7  qrot/sn=     743.2528 T*S(rot)=     4.81 kcal/mol T*S(tot)=    18.05 kcal/mol
 sn= 8  qrot/sn=     650.3462 T*S(rot)=     4.73 kcal/mol T*S(tot)=    17.97 kcal/mol
 sn= 9  qrot/sn=     578.0855 T*S(rot)=     4.66 kcal/mol T*S(tot)=    17.90 kcal/mol
 sn=10  qrot/sn=     520.2769 T*S(rot)=     4.59 kcal/mol T*S(tot)=    17.84 kcal/mol
 sn=11  qrot/sn=     472.9790 T*S(rot)=     4.54 kcal/mol T*S(tot)=    17.78 kcal/mol
 sn=12  qrot/sn=     433.5641 T*S(rot)=     4.49 kcal/mol T*S(tot)=    17.73 kcal/mol

-------------------
GIBBS FREE ENTHALPY
-------------------

The Gibbs free enthalpy is G = H - T*S

Total enthalpy                    ...  -1227.00358399 Eh
Total entropy correction          ...     -0.02955986 Eh    -18.55 kcal/mol
-----------------------------------------------------------------------
Final Gibbs free enthalpy         ...  -1227.03314386 Eh

For completeness - the Gibbs free enthalpy minus the electronic energy
G-E(el)                           ...     -0.00044804 Eh     -0.28 kcal/mol

                             ****ORCA TERMINATED NORMALLY****
TOTAL RUN TIME: 0 days 0 hours 7 minutes 9 seconds 210 msec
