                         Program Version 4.0.0.2 - RELEASE -
|  1> # Well-2-5
|  2>
|  3> ! M06
|  4> ! 6-311++G**
|  5> ! TightOpt NumFreq
|  6>
|  7>
|  8> !NOSOSCF
|  9>
| 10> ! Grid6 FinalGrid7
| 11>
| 12> %pal nprocs 16
| 13> end
| 14>
| 15>
| 16>
| 17> %geom
| 18> 	MaxIter 200
| 19> 	Calc_Hess true # Calculate Hessian in the beginning
| 20> 	NumHess true # Request numerical Hessian (analytical not available)
| 21> 	Recalc_Hess 5  # Recalculate the Hessian every 5 steps
| 22> end
| 23>
| 24> %scf
| 25> MaxIter 1500     # Here setting MaxIter to a very high number. Intended for systems that require sometimes 1000 iterations before converging (very rare).
| 26> DIISMaxEq 15  # Default value is 5. A value of 15-40 necessary for difficult systems.
| 27> directresetfreq 1 # Default value is 15. A value of 1 (very expensive) is sometimes required. A value between 1 and 15 may be more cost-effective.
| 28> end
| 29>
| 30>
| 31> %coords
| 32> 	CTyp = xyz
| 33> 	Charge = 1
| 34> 	Mult = 5
| 35> 	coords
| 36> Mn  -0.05117326866123      0.01227985455494     -0.11681113273215
| 37> O   1.66032991264121      0.00181945043235     -0.28000563034406
| 38> H   -0.36488816264123      0.00432687499073     -1.66151260890910
| 39> H   2.20652285246125     -0.00531848777802     -1.08387603721469
| 40>
| 41> 	end
| 42> end
| 43>
| 44>                          ****END OF INPUT****
 Total Charge           Charge          ....    1
 Multiplicity           Mult            ....    5
 Number of Electrons    NEL             ....   34
FINAL SINGLE POINT ENERGY     -1227.009266752355
FINAL SINGLE POINT ENERGY     -1227.009533354833
FINAL SINGLE POINT ENERGY     -1227.009532978194
                    ***********************HURRAY********************

CARTESIAN COORDINATES (ANGSTROEM)
---------------------------------
  Mn    -0.056496    0.011976   -0.103972
  O      1.649052    0.002398   -0.304822
  H     -0.386563    0.004618   -1.666861
  H      2.244798   -0.005885   -1.066550

 Multiplicity           Mult            ....    5
 Number of Electrons    NEL             ....   34
 Basis Dimension        Dim             ....   94

ORBITAL ENERGIES
----------------
                 SPIN UP ORBITALS
  NO   OCC          E(Eh)            E(eV)
   0   1.0000    -236.043079     -6423.0587
   1   1.0000     -27.851457      -757.8767
   2   1.0000     -23.862353      -649.3276
   3   1.0000     -23.860270      -649.2710
   4   1.0000     -23.859351      -649.2459
   5   1.0000     -19.453563      -529.3584
   6   1.0000      -3.644276       -99.1658
   7   1.0000      -2.488266       -67.7092
   8   1.0000      -2.484651       -67.6108
   9   1.0000      -2.482483       -67.5518
  10   1.0000      -1.233541       -33.5663
  11   1.0000      -0.773005       -21.0345
  12   1.0000      -0.674565       -18.3559
  13   1.0000      -0.666940       -18.1484
  14   1.0000      -0.661492       -18.0001
  15   1.0000      -0.652150       -17.7459
  16   1.0000      -0.602807       -16.4032
  17   1.0000      -0.561296       -15.2736
  18   1.0000      -0.546004       -14.8575
  19   0.0000      -0.376360       -10.2413
  20   0.0000      -0.289954        -7.8901
  21   0.0000      -0.212185        -5.7738
  22   0.0000      -0.183862        -5.0031
  23   0.0000      -0.148312        -4.0358

                 SPIN DOWN ORBITALS
  NO   OCC          E(Eh)            E(eV)
   0   1.0000    -236.043286     -6423.0644
   1   1.0000     -27.796334      -756.3767
   2   1.0000     -23.810734      -647.9230
   3   1.0000     -23.808909      -647.8734
   4   1.0000     -23.803244      -647.7192
   5   1.0000     -19.453369      -529.3531
   6   1.0000      -3.441230       -93.6406
   7   1.0000      -2.274502       -61.8924
   8   1.0000      -2.271525       -61.8113
   9   1.0000      -2.257984       -61.4429
  10   1.0000      -1.234646       -33.5964
  11   1.0000      -0.749483       -20.3945
  12   1.0000      -0.609613       -16.5884
  13   1.0000      -0.589581       -16.0433
  14   1.0000      -0.583017       -15.8647
  15   0.0000      -0.331513        -9.0209
  16   0.0000      -0.328446        -8.9375
  17   0.0000      -0.321093        -8.7374
  18   0.0000      -0.305174        -8.3042
  19   0.0000      -0.290138        -7.8951

MULLIKEN ATOMIC CHARGES AND SPIN POPULATIONS
--------------------------------------------
   0 Mn:    0.875882    4.290210
   1 O :   -0.396906   -0.018023
   2 H :    0.139891   -0.283453
   3 H :    0.381133    0.011266
Sum of atomic charges         :    1.0000000

LOEWDIN ATOMIC CHARGES AND SPIN POPULATIONS
-------------------------------------------
   0 Mn:    0.937307    4.183297
   1 O :   -0.173495    0.031977
   2 H :    0.083416   -0.226458
   3 H :    0.152772    0.011184

  Mayer bond orders larger than 0.1
B(  0-Mn,  1-O ) :   1.3567 B(  0-Mn,  2-H ) :   0.8488 B(  1-O ,  3-H ) :   0.8343

FINAL SINGLE POINT ENERGY     -1227.009532660571

DIPOLE MOMENT
-------------
                                X             Y             Z
Electronic contribution:     -4.00966       0.03570       2.70839
Nuclear contribution   :      2.96960      -0.03048      -2.58773
                        -----------------------------------------
Total Dipole Moment    :     -1.04006       0.00521       0.12066
                        -----------------------------------------
Magnitude (a.u.)       :      1.04704
Magnitude (Debye)      :      2.66138

VIBRATIONAL FREQUENCIES
-----------------------

   0:         0.00 cm**-1
   1:         0.00 cm**-1
   2:         0.00 cm**-1
   3:         0.00 cm**-1
   4:         0.00 cm**-1
   5:         0.00 cm**-1
   6:       250.51 cm**-1
   7:       440.34 cm**-1
   8:       637.10 cm**-1
   9:       766.92 cm**-1
  10:      1700.56 cm**-1
  11:      3843.69 cm**-1

IR SPECTRUM
-----------

 Mode    freq (cm**-1)   T**2         TX         TY         TZ
-------------------------------------------------------------------
   6:       250.51  172.963084  ( -0.066880 -13.151144   0.077620)
   7:       440.34   45.133727  ( -6.280902  -0.002233  -2.384114)
   8:       637.10   93.301239  ( -8.514714   0.011121  -4.560785)
   9:       766.92   36.736910  ( -5.898358   0.036396   1.394615)
  10:      1700.56   17.639189  (  1.311084   0.015908   3.989987)
  11:      3843.69  429.130479  (-18.724806   0.156373   8.859327)

--------------------------
THERMOCHEMISTRY AT 298.15K
--------------------------

Temperature         ... 298.15 K
Pressure            ... 1.00 atm
Total Mass          ... 72.95 AMU

Throughout the following assumptions are being made:
  (1) The electronic state is orbitally nondegenerate
      but the spin degeneracy is treated
  (2) There are no thermally accessible electronically excited states
  (3) Hindered rotations indicated by low frequency modes are not
      treated as such but are treated as vibrations and this may
      cause some error
  (4) All equations used are the standard statistical mechanics
      equations for an ideal gas
  (5) All vibrations are strictly harmonic

freq.     250.51  E(vib)   ...       0.30
freq.     440.34  E(vib)   ...       0.17
freq.     637.10  E(vib)   ...       0.09
freq.     766.92  E(vib)   ...       0.06
freq.    1700.56  E(vib)   ...       0.00
freq.    3843.69  E(vib)   ...       0.00

------------
INNER ENERGY
------------

The inner energy is: U= E(el) + E(ZPE) + E(vib) + E(rot) + E(trans)
    E(el)   - is the total energy from the electronic structure calculation
              = E(kin-el) + E(nuc-el) + E(el-el) + E(nuc-nuc)
    E(ZPE)  - the the zero temperature vibrational energy from the frequency calculation
    E(vib)  - the the finite temperature correction to E(ZPE) due to population
              of excited vibrational states
    E(rot)  - is the rotational thermal energy
    E(trans)- is the translational thermal energy

Summary of contributions to the inner energy U:
Electronic energy                ...  -1227.00953266 Eh
Zero point energy                ...      0.01740319 Eh      10.92 kcal/mol
Thermal vibrational correction   ...      0.00098923 Eh       0.62 kcal/mol
Thermal rotational correction    ...      0.00141627 Eh       0.89 kcal/mol
Thermal translational correction ...      0.00141627 Eh       0.89 kcal/mol
-----------------------------------------------------------------------
Total thermal energy                  -1226.98830769 Eh

Summary of corrections to the electronic energy:
(perhaps to be used in another calculation)
Total thermal correction                  0.00382177 Eh       2.40 kcal/mol
Non-thermal (ZPE) correction              0.01740319 Eh      10.92 kcal/mol
-----------------------------------------------------------------------
Total correction                          0.02122497 Eh      13.32 kcal/mol

--------
ENTHALPY
--------

The enthalpy is H = U + kB*T
                kB is Boltzmann's constant
Total free energy                 ...  -1226.98830769 Eh
Thermal Enthalpy correction       ...      0.00094421 Eh       0.59 kcal/mol
-----------------------------------------------------------------------
Total Enthalpy                    ...  -1226.98736349 Eh

Vibrational entropy computed according to the QRRHO of S. Grimme
Chem.Eur.J. 2012 18 9955

check

-------
ENTROPY
-------

The entropy contributions are T*S = T*(S(el)+S(vib)+S(rot)+S(trans)
     S(el)   - electronic entropy
     S(vib)  - vibrational entropy
     S(rot)  - rotational entropy
     S(trans)- translational entropy
The entropies will be listed as mutliplied by the temperature to get
units of energy

Electronic entropy                ...      0.00151960 Eh      0.95 kcal/mol
Vibrational entropy               ...      0.00151616 Eh      0.95 kcal/mol
Rotational entropy                ...      0.00851960 Eh      5.35 kcal/mol
Translational entropy             ...      0.01842465 Eh     11.56 kcal/mol
-----------------------------------------------------------------------
Final entropy term                ...      0.02998002 Eh     18.81 kcal/mol

CAUTION: The rotational entropy is not quite correctly treated here
         because it includes a symmetry number that is not yet correctly
         implemented in ORCA!
For a nonlinear molecule the correct rotational entropy is:
    S(rot) = R*(ln(qrot/sn)+1.5)
    R    = 8.31441 J/mol/K = 1.987191683e-3 kcal/mol/K
    qrot = 5551.8400630
    sn is the rotational symmetry number. We have assumed 3 here
       if it is different for your molecule then you should correct
       the printed rotational entropy by manually evaluating the equation
       as given above

For convenience we print out the resulting values for sn=1 - 12:
 sn= 1  qrot/sn=    5551.8401 T*S(rot)=     6.00 kcal/mol T*S(tot)=    19.46 kcal/mol
 sn= 2  qrot/sn=    2775.9200 T*S(rot)=     5.59 kcal/mol T*S(tot)=    19.05 kcal/mol
 sn= 3  qrot/sn=    1850.6134 T*S(rot)=     5.35 kcal/mol T*S(tot)=    18.81 kcal/mol
 sn= 4  qrot/sn=    1387.9600 T*S(rot)=     5.18 kcal/mol T*S(tot)=    18.64 kcal/mol
 sn= 5  qrot/sn=    1110.3680 T*S(rot)=     5.04 kcal/mol T*S(tot)=    18.51 kcal/mol
 sn= 6  qrot/sn=     925.3067 T*S(rot)=     4.94 kcal/mol T*S(tot)=    18.40 kcal/mol
 sn= 7  qrot/sn=     793.1200 T*S(rot)=     4.84 kcal/mol T*S(tot)=    18.31 kcal/mol
 sn= 8  qrot/sn=     693.9800 T*S(rot)=     4.76 kcal/mol T*S(tot)=    18.23 kcal/mol
 sn= 9  qrot/sn=     616.8711 T*S(rot)=     4.70 kcal/mol T*S(tot)=    18.16 kcal/mol
 sn=10  qrot/sn=     555.1840 T*S(rot)=     4.63 kcal/mol T*S(tot)=    18.10 kcal/mol
 sn=11  qrot/sn=     504.7127 T*S(rot)=     4.58 kcal/mol T*S(tot)=    18.04 kcal/mol
 sn=12  qrot/sn=     462.6533 T*S(rot)=     4.52 kcal/mol T*S(tot)=    17.99 kcal/mol

-------------------
GIBBS FREE ENTHALPY
-------------------

The Gibbs free enthalpy is G = H - T*S

Total enthalpy                    ...  -1226.98736349 Eh
Total entropy correction          ...     -0.02998002 Eh    -18.81 kcal/mol
-----------------------------------------------------------------------
Final Gibbs free enthalpy         ...  -1227.01734350 Eh

For completeness - the Gibbs free enthalpy minus the electronic energy
G-E(el)                           ...     -0.00781084 Eh     -4.90 kcal/mol

                             ****ORCA TERMINATED NORMALLY****
TOTAL RUN TIME: 0 days 0 hours 7 minutes 28 seconds 763 msec
